 TITLE = "Example: Simple 3D Volume Data"
 VARIABLES = "X", "Y", "Z", "Temperature"
 ZONE I=5, J=5, K=5, DATAPACKING=POINT
  0.400000000000000       0.200000000000000       0.100000000000000     
  0.833323055109259     
  0.800000000000000       0.200000000000000       0.100000000000000     
  0.749984863488323     
   1.20000000000000       0.200000000000000       0.100000000000000     
  0.499979243052133     
   1.60000000000000       0.200000000000000       0.100000000000000     
  0.249985777546107     
   2.00000000000000       0.200000000000000       0.100000000000000     
  0.166657185030738     
  0.400000000000000       0.400000000000000       0.100000000000000     
  0.874992324868814     
  0.800000000000000       0.400000000000000       0.100000000000000     
  0.749986334929443     
   1.20000000000000       0.400000000000000       0.100000000000000     
  0.499981288082186     
   1.60000000000000       0.400000000000000       0.100000000000000     
  0.249987198417375     
   2.00000000000000       0.400000000000000       0.100000000000000     
  0.124993599208687     
  0.400000000000000       0.600000000000000       0.100000000000000     
  0.874992653695019     
  0.800000000000000       0.600000000000000       0.100000000000000     
  0.749986998319204     
   1.20000000000000       0.600000000000000       0.100000000000000     
  0.499982235355704     
   1.60000000000000       0.600000000000000       0.100000000000000     
  0.249987876058925     
   2.00000000000000       0.600000000000000       0.100000000000000     
  0.124993938029462     
  0.400000000000000       0.800000000000000       0.100000000000000     
  0.874992822424412     
  0.800000000000000       0.800000000000000       0.100000000000000     
  0.749987301461426     
   1.20000000000000       0.800000000000000       0.100000000000000     
  0.499982667397558     
   1.60000000000000       0.800000000000000       0.100000000000000     
  0.249988184608789     
   2.00000000000000       0.800000000000000       0.100000000000000     
  0.124994092304395     
  0.400000000000000        1.00000000000000       0.100000000000000     
  0.833323810977522     
  0.800000000000000        1.00000000000000       0.100000000000000     
  0.749987301461426     
   1.20000000000000        1.00000000000000       0.100000000000000     
  0.499982667397558     
   1.60000000000000        1.00000000000000       0.100000000000000     
  0.249988184608789     
   2.00000000000000        1.00000000000000       0.100000000000000     
  0.166658789739193     
  0.400000000000000       0.200000000000000       0.200000000000000     
  0.874992538619509     
  0.800000000000000       0.200000000000000       0.200000000000000     
  0.749985077239019     
   1.20000000000000       0.200000000000000       0.200000000000000     
  0.499979527371992     
   1.60000000000000       0.200000000000000       0.200000000000000     
  0.249985965685987     
   2.00000000000000       0.200000000000000       0.200000000000000     
  0.124992982842993     
  0.400000000000000       0.400000000000000       0.200000000000000     
   1.00000000000000     
  0.800000000000000       0.400000000000000       0.200000000000000     
  0.749986334929443     
   1.20000000000000       0.400000000000000       0.200000000000000     
  0.499981288082186     
   1.60000000000000       0.400000000000000       0.200000000000000     
  0.249987198417375     
   2.00000000000000       0.400000000000000       0.200000000000000     
  0.000000000000000E+000
  0.400000000000000       0.600000000000000       0.200000000000000     
   1.00000000000000     
  0.800000000000000       0.600000000000000       0.200000000000000     
  0.749986998319204     
   1.20000000000000       0.600000000000000       0.200000000000000     
  0.499982235355704     
   1.60000000000000       0.600000000000000       0.200000000000000     
  0.249987876058925     
   2.00000000000000       0.600000000000000       0.200000000000000     
  0.000000000000000E+000
  0.400000000000000       0.800000000000000       0.200000000000000     
   1.00000000000000     
  0.800000000000000       0.800000000000000       0.200000000000000     
  0.749987301461426     
   1.20000000000000       0.800000000000000       0.200000000000000     
  0.499982667397558     
   1.60000000000000       0.800000000000000       0.200000000000000     
  0.249988184608789     
   2.00000000000000       0.800000000000000       0.200000000000000     
  0.000000000000000E+000
  0.400000000000000        1.00000000000000       0.200000000000000     
  0.874992965659330     
  0.800000000000000        1.00000000000000       0.200000000000000     
  0.749987301461426     
   1.20000000000000        1.00000000000000       0.200000000000000     
  0.499982667397558     
   1.60000000000000        1.00000000000000       0.200000000000000     
  0.249988184608789     
   2.00000000000000        1.00000000000000       0.200000000000000     
  0.124994092304395     
  0.400000000000000       0.200000000000000       0.300000000000000     
  0.874992657102373     
  0.800000000000000       0.200000000000000       0.300000000000000     
  0.749985314204746     
   1.20000000000000       0.200000000000000       0.300000000000000     
  0.499979843022107     
   1.60000000000000       0.200000000000000       0.300000000000000     
  0.249986174969017     
   2.00000000000000       0.200000000000000       0.300000000000000     
  0.124993087484509     
  0.400000000000000       0.400000000000000       0.300000000000000     
   1.00000000000000     
  0.800000000000000       0.400000000000000       0.300000000000000     
  0.749986400668429     
   1.20000000000000       0.400000000000000       0.300000000000000     
  0.499981370228957     
   1.60000000000000       0.400000000000000       0.300000000000000     
  0.249987249047064     
   2.00000000000000       0.400000000000000       0.300000000000000     
  0.000000000000000E+000
  0.400000000000000       0.600000000000000       0.300000000000000     
   1.00000000000000     
  0.800000000000000       0.600000000000000       0.300000000000000     
  0.749987037638398     
   1.20000000000000       0.600000000000000       0.300000000000000     
  0.499982281819361     
   1.60000000000000       0.600000000000000       0.300000000000000     
  0.249987902823217     
   2.00000000000000       0.600000000000000       0.300000000000000     
  0.000000000000000E+000
  0.400000000000000       0.800000000000000       0.300000000000000     
   1.00000000000000     
  0.800000000000000       0.800000000000000       0.300000000000000     
  0.749987336314219     
   1.20000000000000       0.800000000000000       0.300000000000000     
  0.499982708121625     
   1.60000000000000       0.800000000000000       0.300000000000000     
  0.249988207803742     
   2.00000000000000       0.800000000000000       0.300000000000000     
  0.000000000000000E+000
  0.400000000000000        1.00000000000000       0.300000000000000     
  0.874993049350576     
  0.800000000000000        1.00000000000000       0.300000000000000     
  0.749987336314219     
   1.20000000000000        1.00000000000000       0.300000000000000     
  0.499982708121625     
   1.60000000000000        1.00000000000000       0.300000000000000     
  0.249988207803742     
   2.00000000000000        1.00000000000000       0.300000000000000     
  0.124994103901871     
  0.400000000000000       0.200000000000000       0.400000000000000     
  0.874992713017361     
  0.800000000000000       0.200000000000000       0.400000000000000     
  0.749985426034722     
   1.20000000000000       0.200000000000000       0.400000000000000     
  0.499979992937439     
   1.60000000000000       0.200000000000000       0.400000000000000     
  0.249986275088380     
   2.00000000000000       0.200000000000000       0.400000000000000     
  0.124993137544190     
  0.400000000000000       0.400000000000000       0.400000000000000     
   1.00000000000000     
  0.800000000000000       0.400000000000000       0.400000000000000     
  0.749986448503344     
   1.20000000000000       0.400000000000000       0.400000000000000     
  0.499981430547451     
   1.60000000000000       0.400000000000000       0.400000000000000     
  0.249987286593800     
   2.00000000000000       0.400000000000000       0.400000000000000     
  0.000000000000000E+000
  0.400000000000000       0.600000000000000       0.400000000000000     
   1.00000000000000     
  0.800000000000000       0.600000000000000       0.400000000000000     
  0.749987067767069     
   1.20000000000000       0.600000000000000       0.400000000000000     
  0.499982317869010     
   1.60000000000000       0.600000000000000       0.400000000000000     
  0.249987923880816     
   2.00000000000000       0.600000000000000       0.400000000000000     
  0.000000000000000E+000
  0.400000000000000       0.800000000000000       0.400000000000000     
   1.00000000000000     
  0.800000000000000       0.800000000000000       0.400000000000000     
  0.749987362765382     
   1.20000000000000       0.800000000000000       0.400000000000000     
  0.499982739370778     
   1.60000000000000       0.800000000000000       0.400000000000000     
  0.249988225816902     
   2.00000000000000       0.800000000000000       0.400000000000000     
  0.000000000000000E+000
  0.400000000000000        1.00000000000000       0.400000000000000     
  0.874993090238601     
  0.800000000000000        1.00000000000000       0.400000000000000     
  0.749987362765382     
   1.20000000000000        1.00000000000000       0.400000000000000     
  0.499982739370778     
   1.60000000000000        1.00000000000000       0.400000000000000     
  0.249988225816902     
   2.00000000000000        1.00000000000000       0.400000000000000     
  0.124994112908451     
  0.400000000000000       0.200000000000000       0.500000000000000     
  0.833323528963298     
  0.800000000000000       0.200000000000000       0.500000000000000     
  0.749985426034722     
   1.20000000000000       0.200000000000000       0.500000000000000     
  0.499979992937439     
   1.60000000000000       0.200000000000000       0.500000000000000     
  0.249986275088380     
   2.00000000000000       0.200000000000000       0.500000000000000     
  0.166657516725587     
  0.400000000000000       0.400000000000000       0.500000000000000     
  0.874992713017361     
  0.800000000000000       0.400000000000000       0.500000000000000     
  0.749986448503344     
   1.20000000000000       0.400000000000000       0.500000000000000     
  0.499981430547451     
   1.60000000000000       0.400000000000000       0.500000000000000     
  0.249987286593800     
   2.00000000000000       0.400000000000000       0.500000000000000     
  0.124993643296900     
  0.400000000000000       0.600000000000000       0.500000000000000     
  0.874992944164469     
  0.800000000000000       0.600000000000000       0.500000000000000     
  0.749987067767068     
   1.20000000000000       0.600000000000000       0.500000000000000     
  0.499982317869010     
   1.60000000000000       0.600000000000000       0.500000000000000     
  0.249987923880816     
   2.00000000000000       0.600000000000000       0.500000000000000     
  0.124993961940408     
  0.400000000000000       0.800000000000000       0.500000000000000     
  0.874993090238601     
  0.800000000000000       0.800000000000000       0.500000000000000     
  0.749987362765382     
   1.20000000000000       0.800000000000000       0.500000000000000     
  0.499982739370778     
   1.60000000000000       0.800000000000000       0.500000000000000     
  0.249988225816902     
   2.00000000000000       0.800000000000000       0.500000000000000     
  0.124994112908451     
  0.400000000000000        1.00000000000000       0.500000000000000     
  0.833324120318134     
  0.800000000000000        1.00000000000000       0.500000000000000     
  0.749987362765382     
   1.20000000000000        1.00000000000000       0.500000000000000     
  0.499982739370778     
   1.60000000000000        1.00000000000000       0.500000000000000     
  0.249988225816902     
   2.00000000000000        1.00000000000000       0.500000000000000     
  0.166658817211268     
