 TITLE = "Example: Simple 3D Volume Data"
 VARIABLES = "X", "Y", "Z", "Temperature"
 ZONE I=5, J=5, K=5, DATAPACKING=POINT
  0.400000000000000       0.200000000000000       0.100000000000000     
  0.833333828363485     
  0.800000000000000       0.200000000000000       0.100000000000000     
  0.750000755833189     
   1.20000000000000       0.200000000000000       0.100000000000000     
  0.500001093877135     
   1.60000000000000       0.200000000000000       0.100000000000000     
  0.250000898407770     
   2.00000000000000       0.200000000000000       0.100000000000000     
  0.166667291130495     
  0.400000000000000       0.400000000000000       0.100000000000000     
  0.875000385416594     
  0.800000000000000       0.400000000000000       0.100000000000000     
  0.750000777061945     
   1.20000000000000       0.400000000000000       0.100000000000000     
  0.500001088877137     
   1.60000000000000       0.400000000000000       0.100000000000000     
  0.250000867178999     
   2.00000000000000       0.400000000000000       0.100000000000000     
  0.125000456703885     
  0.400000000000000       0.600000000000000       0.100000000000000     
  0.875000365162532     
  0.800000000000000       0.600000000000000       0.100000000000000     
  0.750000778938588     
   1.20000000000000       0.600000000000000       0.100000000000000     
  0.500001085578170     
   1.60000000000000       0.600000000000000       0.100000000000000     
  0.250000859116780     
   2.00000000000000       0.600000000000000       0.100000000000000     
  0.125000473865159     
  0.400000000000000       0.800000000000000       0.100000000000000     
  0.875000385416594     
  0.800000000000000       0.800000000000000       0.100000000000000     
  0.750000777061945     
   1.20000000000000       0.800000000000000       0.100000000000000     
  0.500001088877139     
   1.60000000000000       0.800000000000000       0.100000000000000     
  0.250000867179000     
   2.00000000000000       0.800000000000000       0.100000000000000     
  0.125000456703885     
  0.400000000000000        1.00000000000000       0.100000000000000     
  0.833333828363484     
  0.800000000000000        1.00000000000000       0.100000000000000     
  0.750000755833189     
   1.20000000000000        1.00000000000000       0.100000000000000     
  0.500001093877137     
   1.60000000000000        1.00000000000000       0.100000000000000     
  0.250000898407770     
   2.00000000000000        1.00000000000000       0.100000000000000     
  0.166667291130496     
  0.400000000000000       0.200000000000000       0.200000000000000     
  0.875000385416594     
  0.800000000000000       0.200000000000000       0.200000000000000     
  0.750000777061945     
   1.20000000000000       0.200000000000000       0.200000000000000     
  0.500001088877137     
   1.60000000000000       0.200000000000000       0.200000000000000     
  0.250000867178999     
   2.00000000000000       0.200000000000000       0.200000000000000     
  0.125000456703885     
  0.400000000000000       0.400000000000000       0.200000000000000     
   1.00000001000000     
  0.800000000000000       0.400000000000000       0.200000000000000     
  0.750000795670302     
   1.20000000000000       0.400000000000000       0.200000000000000     
  0.500001078877140     
   1.60000000000000       0.400000000000000       0.200000000000000     
  0.250000828570615     
   2.00000000000000       0.400000000000000       0.200000000000000     
  9.999999939225292E-009
  0.400000000000000       0.600000000000000       0.200000000000000     
   1.00000001000000     
  0.800000000000000       0.600000000000000       0.200000000000000     
  0.750000834014429     
   1.20000000000000       0.600000000000000       0.200000000000000     
  0.500001075578173     
   1.60000000000000       0.600000000000000       0.200000000000000     
  0.250000784040911     
   2.00000000000000       0.600000000000000       0.200000000000000     
  9.999999939225292E-009
  0.400000000000000       0.800000000000000       0.200000000000000     
   1.00000001000000     
  0.800000000000000       0.800000000000000       0.200000000000000     
  0.750000795670302     
   1.20000000000000       0.800000000000000       0.200000000000000     
  0.500001078877141     
   1.60000000000000       0.800000000000000       0.200000000000000     
  0.250000828570615     
   2.00000000000000       0.800000000000000       0.200000000000000     
  9.999999939225292E-009
  0.400000000000000        1.00000000000000       0.200000000000000     
  0.875000385416594     
  0.800000000000000        1.00000000000000       0.200000000000000     
  0.750000777061945     
   1.20000000000000        1.00000000000000       0.200000000000000     
  0.500001088877139     
   1.60000000000000        1.00000000000000       0.200000000000000     
  0.250000867179000     
   2.00000000000000        1.00000000000000       0.200000000000000     
  0.125000456703885     
  0.400000000000000       0.200000000000000       0.300000000000000     
  0.875000400084631     
  0.800000000000000       0.200000000000000       0.300000000000000     
  0.750000821735510     
   1.20000000000000       0.200000000000000       0.300000000000000     
  0.500001085546473     
   1.60000000000000       0.200000000000000       0.300000000000000     
  0.250000815972198     
   2.00000000000000       0.200000000000000       0.300000000000000     
  0.125000438769230     
  0.400000000000000       0.400000000000000       0.300000000000000     
   1.00000001000000     
  0.800000000000000       0.400000000000000       0.300000000000000     
  0.750000829265751     
   1.20000000000000       0.400000000000000       0.300000000000000     
  0.500001075546476     
   1.60000000000000       0.400000000000000       0.300000000000000     
  0.250000788441930     
   2.00000000000000       0.400000000000000       0.300000000000000     
  9.999999939225292E-009
  0.400000000000000       0.600000000000000       0.300000000000000     
   1.00000001000000     
  0.800000000000000       0.600000000000000       0.300000000000000     
  0.750000904885859     
   1.20000000000000       0.600000000000000       0.300000000000000     
  0.500001072247508     
   1.60000000000000       0.600000000000000       0.300000000000000     
  0.250000706636246     
   2.00000000000000       0.600000000000000       0.300000000000000     
  9.999999939225292E-009
  0.400000000000000       0.800000000000000       0.300000000000000     
   1.00000001000000     
  0.800000000000000       0.800000000000000       0.300000000000000     
  0.750000829265751     
   1.20000000000000       0.800000000000000       0.300000000000000     
  0.500001075546478     
   1.60000000000000       0.800000000000000       0.300000000000000     
  0.250000788441930     
   2.00000000000000       0.800000000000000       0.300000000000000     
  9.999999939225292E-009
  0.400000000000000        1.00000000000000       0.300000000000000     
  0.875000400084631     
  0.800000000000000        1.00000000000000       0.300000000000000     
  0.750000821735510     
   1.20000000000000        1.00000000000000       0.300000000000000     
  0.500001085546475     
   1.60000000000000        1.00000000000000       0.300000000000000     
  0.250000815972199     
   2.00000000000000        1.00000000000000       0.300000000000000     
  0.125000438769230     
  0.400000000000000       0.200000000000000       0.400000000000000     
  0.875000385416594     
  0.800000000000000       0.200000000000000       0.400000000000000     
  0.750000777061945     
   1.20000000000000       0.200000000000000       0.400000000000000     
  0.500001088877137     
   1.60000000000000       0.200000000000000       0.400000000000000     
  0.250000867178999     
   2.00000000000000       0.200000000000000       0.400000000000000     
  0.125000456703885     
  0.400000000000000       0.400000000000000       0.400000000000000     
   1.00000001000000     
  0.800000000000000       0.400000000000000       0.400000000000000     
  0.750000795670302     
   1.20000000000000       0.400000000000000       0.400000000000000     
  0.500001078877140     
   1.60000000000000       0.400000000000000       0.400000000000000     
  0.250000828570615     
   2.00000000000000       0.400000000000000       0.400000000000000     
  9.999999939225292E-009
  0.400000000000000       0.600000000000000       0.400000000000000     
   1.00000001000000     
  0.800000000000000       0.600000000000000       0.400000000000000     
  0.750000834014429     
   1.20000000000000       0.600000000000000       0.400000000000000     
  0.500001075578172     
   1.60000000000000       0.600000000000000       0.400000000000000     
  0.250000784040911     
   2.00000000000000       0.600000000000000       0.400000000000000     
  9.999999939225292E-009
  0.400000000000000       0.800000000000000       0.400000000000000     
   1.00000001000000     
  0.800000000000000       0.800000000000000       0.400000000000000     
  0.750000795670302     
   1.20000000000000       0.800000000000000       0.400000000000000     
  0.500001078877141     
   1.60000000000000       0.800000000000000       0.400000000000000     
  0.250000828570615     
   2.00000000000000       0.800000000000000       0.400000000000000     
  9.999999939225292E-009
  0.400000000000000        1.00000000000000       0.400000000000000     
  0.875000385416594     
  0.800000000000000        1.00000000000000       0.400000000000000     
  0.750000777061945     
   1.20000000000000        1.00000000000000       0.400000000000000     
  0.500001088877139     
   1.60000000000000        1.00000000000000       0.400000000000000     
  0.250000867179000     
   2.00000000000000        1.00000000000000       0.400000000000000     
  0.125000456703885     
  0.400000000000000       0.200000000000000       0.500000000000000     
  0.833333828363483     
  0.800000000000000       0.200000000000000       0.500000000000000     
  0.750000755833189     
   1.20000000000000       0.200000000000000       0.500000000000000     
  0.500001093877135     
   1.60000000000000       0.200000000000000       0.500000000000000     
  0.250000898407770     
   2.00000000000000       0.200000000000000       0.500000000000000     
  0.166667291130495     
  0.400000000000000       0.400000000000000       0.500000000000000     
  0.875000385416594     
  0.800000000000000       0.400000000000000       0.500000000000000     
  0.750000777061945     
   1.20000000000000       0.400000000000000       0.500000000000000     
  0.500001088877137     
   1.60000000000000       0.400000000000000       0.500000000000000     
  0.250000867178999     
   2.00000000000000       0.400000000000000       0.500000000000000     
  0.125000456703885     
  0.400000000000000       0.600000000000000       0.500000000000000     
  0.875000365162532     
  0.800000000000000       0.600000000000000       0.500000000000000     
  0.750000778938588     
   1.20000000000000       0.600000000000000       0.500000000000000     
  0.500001085578170     
   1.60000000000000       0.600000000000000       0.500000000000000     
  0.250000859116780     
   2.00000000000000       0.600000000000000       0.500000000000000     
  0.125000473865159     
  0.400000000000000       0.800000000000000       0.500000000000000     
  0.875000385416594     
  0.800000000000000       0.800000000000000       0.500000000000000     
  0.750000777061945     
   1.20000000000000       0.800000000000000       0.500000000000000     
  0.500001088877139     
   1.60000000000000       0.800000000000000       0.500000000000000     
  0.250000867179000     
   2.00000000000000       0.800000000000000       0.500000000000000     
  0.125000456703885     
  0.400000000000000        1.00000000000000       0.500000000000000     
  0.833333828363485     
  0.800000000000000        1.00000000000000       0.500000000000000     
  0.750000755833189     
   1.20000000000000        1.00000000000000       0.500000000000000     
  0.500001093877137     
   1.60000000000000        1.00000000000000       0.500000000000000     
  0.250000898407770     
   2.00000000000000        1.00000000000000       0.500000000000000     
  0.166667291130495     
