 TITLE = "Example: Simple 3D Volume Data"
 VARIABLES = "X", "Y", "Z", "Temperature"
 ZONE I=5, J=5, K=5, DATAPACKING=POINT
  0.200000000000000       0.200000000000000       0.200000000000000
  0.833423021099128
  0.400000000000000       0.200000000000000       0.200000000000000
  0.750121836643749
  0.600000000000000       0.200000000000000       0.200000000000000
  0.500153695648292
  0.800000000000000       0.200000000000000       0.200000000000000
  0.250121641610970
   1.00000000000000       0.200000000000000       0.200000000000000
  0.166755964403596
  0.200000000000000       0.400000000000000       0.200000000000000
  0.875068418321685
  0.400000000000000       0.400000000000000       0.200000000000000
  0.750116739138403
  0.600000000000000       0.400000000000000       0.200000000000000
  0.500148695648418
  0.800000000000000       0.400000000000000       0.200000000000000
  0.250116739116569
   1.00000000000000       0.400000000000000       0.200000000000000
  0.125068320805295
  0.200000000000000       0.600000000000000       0.200000000000000
  0.875067016455806
  0.400000000000000       0.600000000000000       0.200000000000000
  0.750114130418697
  0.600000000000000       0.600000000000000       0.200000000000000
  0.500145652170234
  0.800000000000000       0.600000000000000       0.200000000000000
  0.250114130445102
   1.00000000000000       0.600000000000000       0.200000000000000
  0.125067113975588
  0.200000000000000       0.800000000000000       0.200000000000000
  0.875068418321685
  0.400000000000000       0.800000000000000       0.200000000000000
  0.750116739138403
  0.600000000000000       0.800000000000000       0.200000000000000
  0.500148695648418
  0.800000000000000       0.800000000000000       0.200000000000000
  0.250116739116569
   1.00000000000000       0.800000000000000       0.200000000000000
  0.125068320805295
  0.200000000000000        1.00000000000000       0.200000000000000
  0.833423021099128
  0.400000000000000        1.00000000000000       0.200000000000000
  0.750121836643749
  0.600000000000000        1.00000000000000       0.200000000000000
  0.500153695648292
  0.800000000000000        1.00000000000000       0.200000000000000
  0.250121641610970
   1.00000000000000        1.00000000000000       0.200000000000000
  0.166755964403596
  0.200000000000000       0.200000000000000       0.400000000000000
  0.875068418321685
  0.400000000000000       0.200000000000000       0.400000000000000
  0.750116739138403
  0.600000000000000       0.200000000000000       0.400000000000000
  0.500148695648418
  0.800000000000000       0.200000000000000       0.400000000000000
  0.250116739116569
   1.00000000000000       0.200000000000000       0.400000000000000
  0.125068320805295
  0.200000000000000       0.400000000000000       0.400000000000000
   1.00000999999975
  0.400000000000000       0.400000000000000       0.400000000000000
  0.750106739131870
  0.600000000000000       0.400000000000000       0.400000000000000
  0.500138695648670
  0.800000000000000       0.400000000000000       0.400000000000000
  0.250106739123607
   1.00000000000000       0.400000000000000       0.400000000000000
  9.999999747378752E-006
  0.200000000000000       0.600000000000000       0.400000000000000
   1.00000999999975
  0.400000000000000       0.600000000000000       0.400000000000000
  0.750104130427227
  0.600000000000000       0.600000000000000       0.400000000000000
  0.500135652170487
  0.800000000000000       0.600000000000000       0.400000000000000
  0.250104130437078
   1.00000000000000       0.600000000000000       0.400000000000000
  9.999999747378752E-006
  0.200000000000000       0.800000000000000       0.400000000000000
   1.00000999999975
  0.400000000000000       0.800000000000000       0.400000000000000
  0.750106739131870
  0.600000000000000       0.800000000000000       0.400000000000000
  0.500138695648670
  0.800000000000000       0.800000000000000       0.400000000000000
  0.250106739123607
   1.00000000000000       0.800000000000000       0.400000000000000
  9.999999747378752E-006
  0.200000000000000        1.00000000000000       0.400000000000000
  0.875068418321685
  0.400000000000000        1.00000000000000       0.400000000000000
  0.750116739138403
  0.600000000000000        1.00000000000000       0.400000000000000
  0.500148695648418
  0.800000000000000        1.00000000000000       0.400000000000000
  0.250116739116569
   1.00000000000000        1.00000000000000       0.400000000000000
  0.125068320805295
  0.200000000000000       0.200000000000000       0.600000000000000
  0.875067016455806
  0.400000000000000       0.200000000000000       0.600000000000000
  0.750114130418697
  0.600000000000000       0.200000000000000       0.600000000000000
  0.500145652170234
  0.800000000000000       0.200000000000000       0.600000000000000
  0.250114130445102
   1.00000000000000       0.200000000000000       0.600000000000000
  0.125067113975588
  0.200000000000000       0.400000000000000       0.600000000000000
   1.00000999999975
  0.400000000000000       0.400000000000000       0.600000000000000
  0.750104130427227
  0.600000000000000       0.400000000000000       0.600000000000000
  0.500135652170486
  0.800000000000000       0.400000000000000       0.600000000000000
  0.250104130437078
   1.00000000000000       0.400000000000000       0.600000000000000
  9.999999747378752E-006
  0.200000000000000       0.600000000000000       0.600000000000000
   1.00000999999975
  0.400000000000000       0.600000000000000       0.600000000000000
  0.750101521728367
  0.600000000000000       0.600000000000000       0.600000000000000
  0.500132608692303
  0.800000000000000       0.600000000000000       0.600000000000000
  0.250101521744765
   1.00000000000000       0.600000000000000       0.600000000000000
  9.999999747378752E-006
  0.200000000000000       0.800000000000000       0.600000000000000
   1.00000999999975
  0.400000000000000       0.800000000000000       0.600000000000000
  0.750104130427227
  0.600000000000000       0.800000000000000       0.600000000000000
  0.500135652170487
  0.800000000000000       0.800000000000000       0.600000000000000
  0.250104130437078
   1.00000000000000       0.800000000000000       0.600000000000000
  9.999999747378752E-006
  0.200000000000000        1.00000000000000       0.600000000000000
  0.875067016455806
  0.400000000000000        1.00000000000000       0.600000000000000
  0.750114130418697
  0.600000000000000        1.00000000000000       0.600000000000000
  0.500145652170234
  0.800000000000000        1.00000000000000       0.600000000000000
  0.250114130445102
   1.00000000000000        1.00000000000000       0.600000000000000
  0.125067113975588
  0.200000000000000       0.200000000000000       0.800000000000000
  0.875068418321685
  0.400000000000000       0.200000000000000       0.800000000000000
  0.750116739138403
  0.600000000000000       0.200000000000000       0.800000000000000
  0.500148695648418
  0.800000000000000       0.200000000000000       0.800000000000000
  0.250116739116569
   1.00000000000000       0.200000000000000       0.800000000000000
  0.125068320805295
  0.200000000000000       0.400000000000000       0.800000000000000
   1.00000999999975
  0.400000000000000       0.400000000000000       0.800000000000000
  0.750106739131870
  0.600000000000000       0.400000000000000       0.800000000000000
  0.500138695648670
  0.800000000000000       0.400000000000000       0.800000000000000
  0.250106739123607
   1.00000000000000       0.400000000000000       0.800000000000000
  9.999999747378752E-006
  0.200000000000000       0.600000000000000       0.800000000000000
   1.00000999999975
  0.400000000000000       0.600000000000000       0.800000000000000
  0.750104130427227
  0.600000000000000       0.600000000000000       0.800000000000000
  0.500135652170487
  0.800000000000000       0.600000000000000       0.800000000000000
  0.250104130437078
   1.00000000000000       0.600000000000000       0.800000000000000
  9.999999747378752E-006
  0.200000000000000       0.800000000000000       0.800000000000000
   1.00000999999975
  0.400000000000000       0.800000000000000       0.800000000000000
  0.750106739131870
  0.600000000000000       0.800000000000000       0.800000000000000
  0.500138695648670
  0.800000000000000       0.800000000000000       0.800000000000000
  0.250106739123607
   1.00000000000000       0.800000000000000       0.800000000000000
  9.999999747378752E-006
  0.200000000000000        1.00000000000000       0.800000000000000
  0.875068418321685
  0.400000000000000        1.00000000000000       0.800000000000000
  0.750116739138403
  0.600000000000000        1.00000000000000       0.800000000000000
  0.500148695648418
  0.800000000000000        1.00000000000000       0.800000000000000
  0.250116739116569
   1.00000000000000        1.00000000000000       0.800000000000000
  0.125068320805295
  0.200000000000000       0.200000000000000        1.00000000000000
  0.833423021099128
  0.400000000000000       0.200000000000000        1.00000000000000
  0.750121836643749
  0.600000000000000       0.200000000000000        1.00000000000000
  0.500153695648292
  0.800000000000000       0.200000000000000        1.00000000000000
  0.250121641610970
   1.00000000000000       0.200000000000000        1.00000000000000
  0.166755964403596
  0.200000000000000       0.400000000000000        1.00000000000000
  0.875068418321685
  0.400000000000000       0.400000000000000        1.00000000000000
  0.750116739138403
  0.600000000000000       0.400000000000000        1.00000000000000
  0.500148695648418
  0.800000000000000       0.400000000000000        1.00000000000000
  0.250116739116569
   1.00000000000000       0.400000000000000        1.00000000000000
  0.125068320805295
  0.200000000000000       0.600000000000000        1.00000000000000
  0.875067016455806
  0.400000000000000       0.600000000000000        1.00000000000000
  0.750114130418697
  0.600000000000000       0.600000000000000        1.00000000000000
  0.500145652170234
  0.800000000000000       0.600000000000000        1.00000000000000
  0.250114130445102
   1.00000000000000       0.600000000000000        1.00000000000000
  0.125067113975588
  0.200000000000000       0.800000000000000        1.00000000000000
  0.875068418321685
  0.400000000000000       0.800000000000000        1.00000000000000
  0.750116739138403
  0.600000000000000       0.800000000000000        1.00000000000000
  0.500148695648418
  0.800000000000000       0.800000000000000        1.00000000000000
  0.250116739116569
   1.00000000000000       0.800000000000000        1.00000000000000
  0.125068320805295
  0.200000000000000        1.00000000000000        1.00000000000000
  0.833423021099128
  0.400000000000000        1.00000000000000        1.00000000000000
  0.750121836643749
  0.600000000000000        1.00000000000000        1.00000000000000
  0.500153695648292
  0.800000000000000        1.00000000000000        1.00000000000000
  0.250121641610970
   1.00000000000000        1.00000000000000        1.00000000000000
  0.166755964403597
