 TITLE = "Example: Simple 3D Volume Data"
 VARIABLES = "X", "Y", "Z", "Temperature"
 ZONE I=10, J=10, K=10, DATAPACKING=POINT
  0.100000000000000       0.100000000000000       0.100000000000000     
  0.925936047015790     
  0.200000000000000       0.100000000000000       0.100000000000000     
  0.888903502423805     
  0.300000000000000       0.100000000000000       0.100000000000000     
  0.777792829122001     
  0.400000000000000       0.100000000000000       0.100000000000000     
  0.666690823323262     
  0.500000000000000       0.100000000000000       0.100000000000000     
  0.555560619618951     
  0.600000000000000       0.100000000000000       0.100000000000000     
  0.444436881119353     
  0.700000000000000       0.100000000000000       0.100000000000000     
  0.333312366687148     
  0.800000000000000       0.100000000000000       0.100000000000000     
  0.222202258931622     
  0.900000000000000       0.100000000000000       0.100000000000000     
  0.111101200573173     
   1.00000000000000       0.100000000000000       0.100000000000000     
  7.405317841257471E-002
  0.100000000000000       0.200000000000000       0.100000000000000     
  0.944451751211903     
  0.200000000000000       0.200000000000000       0.100000000000000     
  0.888902745009817     
  0.300000000000000       0.200000000000000       0.100000000000000     
  0.777793358677175     
  0.400000000000000       0.200000000000000       0.100000000000000     
  0.666689459321975     
  0.500000000000000       0.200000000000000       0.100000000000000     
  0.555560871125254     
  0.600000000000000       0.200000000000000       0.100000000000000     
  0.444436929863374     
  0.700000000000000       0.200000000000000       0.100000000000000     
  0.333312977600849     
  0.800000000000000       0.200000000000000       0.100000000000000     
  0.222202748484622     
  0.900000000000000       0.200000000000000       0.100000000000000     
  0.111101118403546     
   1.00000000000000       0.200000000000000       0.100000000000000     
  5.555059980477778E-002
  0.100000000000000       0.300000000000000       0.100000000000000     
  0.944450434199541     
  0.200000000000000       0.300000000000000       0.100000000000000     
  0.888900587585649     
  0.300000000000000       0.300000000000000       0.100000000000000     
  0.777795657263220     
  0.400000000000000       0.300000000000000       0.100000000000000     
  0.666686673697071     
  0.500000000000000       0.300000000000000       0.100000000000000     
  0.555561076007928     
  0.600000000000000       0.300000000000000       0.100000000000000     
  0.444437658529952     
  0.700000000000000       0.300000000000000       0.100000000000000     
  0.333313219142004     
  0.800000000000000       0.300000000000000       0.100000000000000     
  0.222204260781464     
  0.900000000000000       0.300000000000000       0.100000000000000     
  0.111100056974930     
   1.00000000000000       0.300000000000000       0.100000000000000     
  5.554993881595158E-002
  0.100000000000000       0.400000000000000       0.100000000000000     
  0.944449360193091     
  0.200000000000000       0.400000000000000       0.100000000000000     
  0.888898769593437     
  0.300000000000000       0.400000000000000       0.100000000000000     
  0.777796455066402     
  0.400000000000000       0.400000000000000       0.100000000000000     
  0.666684279213759     
  0.500000000000000       0.400000000000000       0.100000000000000     
  0.555561895947647     
  0.600000000000000       0.400000000000000       0.100000000000000     
  0.444438316990242     
  0.700000000000000       0.400000000000000       0.100000000000000     
  0.333312952934196     
  0.800000000000000       0.400000000000000       0.100000000000000     
  0.222206493228949     
  0.900000000000000       0.400000000000000       0.100000000000000     
  0.111099041232678     
   1.00000000000000       0.400000000000000       0.100000000000000     
  5.554928468335665E-002
  0.100000000000000       0.500000000000000       0.100000000000000     
  0.944448994882834     
  0.200000000000000       0.500000000000000       0.100000000000000     
  0.888898105822361     
  0.300000000000000       0.500000000000000       0.100000000000000     
  0.777796664121152     
  0.400000000000000       0.500000000000000       0.100000000000000     
  0.666683329714230     
  0.500000000000000       0.500000000000000       0.100000000000000     
  0.555563038106518     
  0.600000000000000       0.500000000000000       0.100000000000000     
  0.444438178766659     
  0.700000000000000       0.500000000000000       0.100000000000000     
  0.333311614800139     
  0.800000000000000       0.500000000000000       0.100000000000000     
  0.222207871700427     
  0.900000000000000       0.500000000000000       0.100000000000000     
  0.111098694992388     
   1.00000000000000       0.500000000000000       0.100000000000000     
  5.554906165360741E-002
  0.100000000000000       0.600000000000000       0.100000000000000     
  0.944448994882834     
  0.200000000000000       0.600000000000000       0.100000000000000     
  0.888898105822362     
  0.300000000000000       0.600000000000000       0.100000000000000     
  0.777796664121152     
  0.400000000000000       0.600000000000000       0.100000000000000     
  0.666683329714230     
  0.500000000000000       0.600000000000000       0.100000000000000     
  0.555563038106518     
  0.600000000000000       0.600000000000000       0.100000000000000     
  0.444438178766659     
  0.700000000000000       0.600000000000000       0.100000000000000     
  0.333311614800139     
  0.800000000000000       0.600000000000000       0.100000000000000     
  0.222207871700427     
  0.900000000000000       0.600000000000000       0.100000000000000     
  0.111098694992388     
   1.00000000000000       0.600000000000000       0.100000000000000     
  5.554906177373623E-002
  0.100000000000000       0.700000000000000       0.100000000000000     
  0.944449360193091     
  0.200000000000000       0.700000000000000       0.100000000000000     
  0.888898769593437     
  0.300000000000000       0.700000000000000       0.100000000000000     
  0.777796455066402     
  0.400000000000000       0.700000000000000       0.100000000000000     
  0.666684279213759     
  0.500000000000000       0.700000000000000       0.100000000000000     
  0.555561895947647     
  0.600000000000000       0.700000000000000       0.100000000000000     
  0.444438316990242     
  0.700000000000000       0.700000000000000       0.100000000000000     
  0.333312952934196     
  0.800000000000000       0.700000000000000       0.100000000000000     
  0.222206493228949     
  0.900000000000000       0.700000000000000       0.100000000000000     
  0.111099041232678     
   1.00000000000000       0.700000000000000       0.100000000000000     
  5.554928465343083E-002
  0.100000000000000       0.800000000000000       0.100000000000000     
  0.944450434199541     
  0.200000000000000       0.800000000000000       0.100000000000000     
  0.888900587585649     
  0.300000000000000       0.800000000000000       0.100000000000000     
  0.777795657263220     
  0.400000000000000       0.800000000000000       0.100000000000000     
  0.666686673697071     
  0.500000000000000       0.800000000000000       0.100000000000000     
  0.555561076007928     
  0.600000000000000       0.800000000000000       0.100000000000000     
  0.444437658529952     
  0.700000000000000       0.800000000000000       0.100000000000000     
  0.333313219142004     
  0.800000000000000       0.800000000000000       0.100000000000000     
  0.222204260781464     
  0.900000000000000       0.800000000000000       0.100000000000000     
  0.111100056974930     
   1.00000000000000       0.800000000000000       0.100000000000000     
  5.554993913140301E-002
  0.100000000000000       0.900000000000000       0.100000000000000     
  0.944451751211902     
  0.200000000000000       0.900000000000000       0.100000000000000     
  0.888902745009818     
  0.300000000000000       0.900000000000000       0.100000000000000     
  0.777793358677175     
  0.400000000000000       0.900000000000000       0.100000000000000     
  0.666689459321975     
  0.500000000000000       0.900000000000000       0.100000000000000     
  0.555560871125253     
  0.600000000000000       0.900000000000000       0.100000000000000     
  0.444436929863374     
  0.700000000000000       0.900000000000000       0.100000000000000     
  0.333312977600849     
  0.800000000000000       0.900000000000000       0.100000000000000     
  0.222202748484623     
  0.900000000000000       0.900000000000000       0.100000000000000     
  0.111101118403546     
   1.00000000000000       0.900000000000000       0.100000000000000     
  5.555059979682479E-002
  0.100000000000000        1.00000000000000       0.100000000000000     
  0.925936047015814     
  0.200000000000000        1.00000000000000       0.100000000000000     
  0.888903502423805     
  0.300000000000000        1.00000000000000       0.100000000000000     
  0.777792829121998     
  0.400000000000000        1.00000000000000       0.100000000000000     
  0.666690823323257     
  0.500000000000000        1.00000000000000       0.100000000000000     
  0.555560619619059     
  0.600000000000000        1.00000000000000       0.100000000000000     
  0.444436881120393     
  0.700000000000000        1.00000000000000       0.100000000000000     
  0.333312366663997     
  0.800000000000000        1.00000000000000       0.100000000000000     
  0.222202258897656     
  0.900000000000000        1.00000000000000       0.100000000000000     
  0.111101200557366     
   1.00000000000000        1.00000000000000       0.100000000000000     
  7.407048415689156E-002
  0.100000000000000       0.100000000000000       0.200000000000000     
  0.944451751211903     
  0.200000000000000       0.100000000000000       0.200000000000000     
  0.888902745009817     
  0.300000000000000       0.100000000000000       0.200000000000000     
  0.777793358677175     
  0.400000000000000       0.100000000000000       0.200000000000000     
  0.666689459321975     
  0.500000000000000       0.100000000000000       0.200000000000000     
  0.555560871125254     
  0.600000000000000       0.100000000000000       0.200000000000000     
  0.444436929863374     
  0.700000000000000       0.100000000000000       0.200000000000000     
  0.333312977600849     
  0.800000000000000       0.100000000000000       0.200000000000000     
  0.222202748484622     
  0.900000000000000       0.100000000000000       0.200000000000000     
  0.111101118403546     
   1.00000000000000       0.100000000000000       0.200000000000000     
  5.555059980477778E-002
  0.100000000000000       0.200000000000000       0.200000000000000     
   1.00000000000000     
  0.200000000000000       0.200000000000000       0.200000000000000     
  0.888901466648301     
  0.300000000000000       0.200000000000000       0.200000000000000     
  0.777794051470967     
  0.400000000000000       0.200000000000000       0.200000000000000     
  0.666687077850868     
  0.500000000000000       0.200000000000000       0.200000000000000     
  0.555561228729965     
  0.600000000000000       0.200000000000000       0.200000000000000     
  0.444437066945234     
  0.700000000000000       0.200000000000000       0.200000000000000     
  0.333314158146657     
  0.800000000000000       0.200000000000000       0.200000000000000     
  0.222203678131378     
  0.900000000000000       0.200000000000000       0.200000000000000     
  0.111101031527079     
   1.00000000000000       0.200000000000000       0.200000000000000     
 -1.697680248536113E-011
  0.100000000000000       0.300000000000000       0.200000000000000     
   1.00000000000000     
  0.200000000000000       0.300000000000000       0.200000000000000     
  0.888900050008557     
  0.300000000000000       0.300000000000000       0.200000000000000     
  0.777795157555775     
  0.400000000000000       0.300000000000000       0.200000000000000     
  0.666685063911436     
  0.500000000000000       0.300000000000000       0.200000000000000     
  0.555561329353150     
  0.600000000000000       0.300000000000000       0.200000000000000     
  0.444437604511809     
  0.700000000000000       0.300000000000000       0.200000000000000     
  0.333314639666758     
  0.800000000000000       0.300000000000000       0.200000000000000     
  0.222204831964879     
  0.900000000000000       0.300000000000000       0.200000000000000     
  0.111100420375601     
   1.00000000000000       0.300000000000000       0.200000000000000     
 -1.697680248536113E-011
  0.100000000000000       0.400000000000000       0.200000000000000     
   1.00000000000000     
  0.200000000000000       0.400000000000000       0.200000000000000     
  0.888898777731075     
  0.300000000000000       0.400000000000000       0.200000000000000     
  0.777795438453370     
  0.400000000000000       0.400000000000000       0.200000000000000     
  0.666683389020996     
  0.500000000000000       0.400000000000000       0.200000000000000     
  0.555561825538441     
  0.600000000000000       0.400000000000000       0.200000000000000     
  0.444438090219923     
  0.700000000000000       0.400000000000000       0.200000000000000     
  0.333314676095438     
  0.800000000000000       0.400000000000000       0.200000000000000     
  0.222206353841787     
  0.900000000000000       0.400000000000000       0.200000000000000     
  0.111099864582738     
   1.00000000000000       0.400000000000000       0.200000000000000     
 -1.697680248536113E-011
  0.100000000000000       0.500000000000000       0.200000000000000     
   1.00000000000000     
  0.200000000000000       0.500000000000000       0.200000000000000     
  0.888898236274437     
  0.300000000000000       0.500000000000000       0.200000000000000     
  0.777795464021403     
  0.400000000000000       0.500000000000000       0.200000000000000     
  0.666682714203524     
  0.500000000000000       0.500000000000000       0.200000000000000     
  0.555562523542301     
  0.600000000000000       0.500000000000000       0.200000000000000     
  0.444438020211864     
  0.700000000000000       0.500000000000000       0.200000000000000     
  0.333313948419351     
  0.800000000000000       0.500000000000000       0.200000000000000     
  0.222207268434205     
  0.900000000000000       0.500000000000000       0.200000000000000     
  0.111099682640007     
   1.00000000000000       0.500000000000000       0.200000000000000     
 -1.697680248536113E-011
  0.100000000000000       0.600000000000000       0.200000000000000     
   1.00000000000000     
  0.200000000000000       0.600000000000000       0.200000000000000     
  0.888898236274437     
  0.300000000000000       0.600000000000000       0.200000000000000     
  0.777795464021403     
  0.400000000000000       0.600000000000000       0.200000000000000     
  0.666682714203525     
  0.500000000000000       0.600000000000000       0.200000000000000     
  0.555562523542300     
  0.600000000000000       0.600000000000000       0.200000000000000     
  0.444438020211864     
  0.700000000000000       0.600000000000000       0.200000000000000     
  0.333313948419352     
  0.800000000000000       0.600000000000000       0.200000000000000     
  0.222207268434205     
  0.900000000000000       0.600000000000000       0.200000000000000     
  0.111099682640007     
   1.00000000000000       0.600000000000000       0.200000000000000     
 -1.697680248536113E-011
  0.100000000000000       0.700000000000000       0.200000000000000     
   1.00000000000000     
  0.200000000000000       0.700000000000000       0.200000000000000     
  0.888898777731075     
  0.300000000000000       0.700000000000000       0.200000000000000     
  0.777795438453371     
  0.400000000000000       0.700000000000000       0.200000000000000     
  0.666683389020996     
  0.500000000000000       0.700000000000000       0.200000000000000     
  0.555561825538441     
  0.600000000000000       0.700000000000000       0.200000000000000     
  0.444438090219923     
  0.700000000000000       0.700000000000000       0.200000000000000     
  0.333314676095438     
  0.800000000000000       0.700000000000000       0.200000000000000     
  0.222206353841787     
  0.900000000000000       0.700000000000000       0.200000000000000     
  0.111099864582738     
   1.00000000000000       0.700000000000000       0.200000000000000     
 -1.697680248536113E-011
  0.100000000000000       0.800000000000000       0.200000000000000     
   1.00000000000000     
  0.200000000000000       0.800000000000000       0.200000000000000     
  0.888900050008556     
  0.300000000000000       0.800000000000000       0.200000000000000     
  0.777795157555776     
  0.400000000000000       0.800000000000000       0.200000000000000     
  0.666685063911436     
  0.500000000000000       0.800000000000000       0.200000000000000     
  0.555561329353150     
  0.600000000000000       0.800000000000000       0.200000000000000     
  0.444437604511809     
  0.700000000000000       0.800000000000000       0.200000000000000     
  0.333314639666758     
  0.800000000000000       0.800000000000000       0.200000000000000     
  0.222204831964879     
  0.900000000000000       0.800000000000000       0.200000000000000     
  0.111100420375601     
   1.00000000000000       0.800000000000000       0.200000000000000     
 -1.697680248536113E-011
  0.100000000000000       0.900000000000000       0.200000000000000     
   1.00000000000000     
  0.200000000000000       0.900000000000000       0.200000000000000     
  0.888901466648301     
  0.300000000000000       0.900000000000000       0.200000000000000     
  0.777794051470967     
  0.400000000000000       0.900000000000000       0.200000000000000     
  0.666687077850868     
  0.500000000000000       0.900000000000000       0.200000000000000     
  0.555561228729965     
  0.600000000000000       0.900000000000000       0.200000000000000     
  0.444437066945234     
  0.700000000000000       0.900000000000000       0.200000000000000     
  0.333314158146658     
  0.800000000000000       0.900000000000000       0.200000000000000     
  0.222203678131378     
  0.900000000000000       0.900000000000000       0.200000000000000     
  0.111101031527079     
   1.00000000000000       0.900000000000000       0.200000000000000     
 -1.697680248536113E-011
  0.100000000000000        1.00000000000000       0.200000000000000     
  0.944451751211902     
  0.200000000000000        1.00000000000000       0.200000000000000     
  0.888902745009818     
  0.300000000000000        1.00000000000000       0.200000000000000     
  0.777793358677175     
  0.400000000000000        1.00000000000000       0.200000000000000     
  0.666689459321975     
  0.500000000000000        1.00000000000000       0.200000000000000     
  0.555560871125253     
  0.600000000000000        1.00000000000000       0.200000000000000     
  0.444436929863374     
  0.700000000000000        1.00000000000000       0.200000000000000     
  0.333312977600849     
  0.800000000000000        1.00000000000000       0.200000000000000     
  0.222202748484623     
  0.900000000000000        1.00000000000000       0.200000000000000     
  0.111101118403546     
   1.00000000000000        1.00000000000000       0.200000000000000     
  5.555060031606947E-002
  0.100000000000000       0.100000000000000       0.300000000000000     
  0.944450434199542     
  0.200000000000000       0.100000000000000       0.300000000000000     
  0.888900587585649     
  0.300000000000000       0.100000000000000       0.300000000000000     
  0.777795657263220     
  0.400000000000000       0.100000000000000       0.300000000000000     
  0.666686673697071     
  0.500000000000000       0.100000000000000       0.300000000000000     
  0.555561076007928     
  0.600000000000000       0.100000000000000       0.300000000000000     
  0.444437658529952     
  0.700000000000000       0.100000000000000       0.300000000000000     
  0.333313219142004     
  0.800000000000000       0.100000000000000       0.300000000000000     
  0.222204260781464     
  0.900000000000000       0.100000000000000       0.300000000000000     
  0.111100056974930     
   1.00000000000000       0.100000000000000       0.300000000000000     
  5.554993909600943E-002
  0.100000000000000       0.200000000000000       0.300000000000000     
   1.00000000000000     
  0.200000000000000       0.200000000000000       0.300000000000000     
  0.888900050008557     
  0.300000000000000       0.200000000000000       0.300000000000000     
  0.777795157555776     
  0.400000000000000       0.200000000000000       0.300000000000000     
  0.666685063911436     
  0.500000000000000       0.200000000000000       0.300000000000000     
  0.555561329353150     
  0.600000000000000       0.200000000000000       0.300000000000000     
  0.444437604511809     
  0.700000000000000       0.200000000000000       0.300000000000000     
  0.333314639666758     
  0.800000000000000       0.200000000000000       0.300000000000000     
  0.222204831964879     
  0.900000000000000       0.200000000000000       0.300000000000000     
  0.111100420375601     
   1.00000000000000       0.200000000000000       0.300000000000000     
 -1.697680248536113E-011
  0.100000000000000       0.300000000000000       0.300000000000000     
   1.00000000000000     
  0.200000000000000       0.300000000000000       0.300000000000000     
  0.888899417840148     
  0.300000000000000       0.300000000000000       0.300000000000000     
  0.777795020153591     
  0.400000000000000       0.300000000000000       0.300000000000000     
  0.666683607300372     
  0.500000000000000       0.300000000000000       0.300000000000000     
  0.555561490352032     
  0.600000000000000       0.300000000000000       0.300000000000000     
  0.444437858510861     
  0.700000000000000       0.300000000000000       0.300000000000000     
  0.333315513483356     
  0.800000000000000       0.300000000000000       0.300000000000000     
  0.222205528610365     
  0.900000000000000       0.300000000000000       0.300000000000000     
  0.111100335990271     
   1.00000000000000       0.300000000000000       0.300000000000000     
 -1.697680248536113E-011
  0.100000000000000       0.400000000000000       0.300000000000000     
   1.00000000000000     
  0.200000000000000       0.400000000000000       0.300000000000000     
  0.888898804775605     
  0.300000000000000       0.400000000000000       0.300000000000000     
  0.777794627126595     
  0.400000000000000       0.400000000000000       0.300000000000000     
  0.666682486565418     
  0.500000000000000       0.400000000000000       0.300000000000000     
  0.555561923511667     
  0.600000000000000       0.400000000000000       0.300000000000000     
  0.444438037783842     
  0.700000000000000       0.400000000000000       0.300000000000000     
  0.333315934983202     
  0.800000000000000       0.400000000000000       0.300000000000000     
  0.222206499492541     
  0.900000000000000       0.400000000000000       0.300000000000000     
  0.111100065589290     
   1.00000000000000       0.400000000000000       0.300000000000000     
 -1.697680248536113E-011
  0.100000000000000       0.500000000000000       0.300000000000000     
   1.00000000000000     
  0.200000000000000       0.500000000000000       0.300000000000000     
  0.888898474643719     
  0.300000000000000       0.500000000000000       0.300000000000000     
  0.777794373683981     
  0.400000000000000       0.500000000000000       0.300000000000000     
  0.666682078536734     
  0.500000000000000       0.500000000000000       0.300000000000000     
  0.555562417564045     
  0.600000000000000       0.500000000000000       0.300000000000000     
  0.444437826460675     
  0.700000000000000       0.500000000000000       0.300000000000000     
  0.333315688394775     
  0.800000000000000       0.500000000000000       0.300000000000000     
  0.222207145632937     
  0.900000000000000       0.500000000000000       0.300000000000000     
  0.111099988841136     
   1.00000000000000       0.500000000000000       0.300000000000000     
 -1.697680248536113E-011
  0.100000000000000       0.600000000000000       0.300000000000000     
   1.00000000000000     
  0.200000000000000       0.600000000000000       0.300000000000000     
  0.888898474643719     
  0.300000000000000       0.600000000000000       0.300000000000000     
  0.777794373683981     
  0.400000000000000       0.600000000000000       0.300000000000000     
  0.666682078536734     
  0.500000000000000       0.600000000000000       0.300000000000000     
  0.555562417564045     
  0.600000000000000       0.600000000000000       0.300000000000000     
  0.444437826460675     
  0.700000000000000       0.600000000000000       0.300000000000000     
  0.333315688394775     
  0.800000000000000       0.600000000000000       0.300000000000000     
  0.222207145632937     
  0.900000000000000       0.600000000000000       0.300000000000000     
  0.111099988841136     
   1.00000000000000       0.600000000000000       0.300000000000000     
 -1.697680248536113E-011
  0.100000000000000       0.700000000000000       0.300000000000000     
   1.00000000000000     
  0.200000000000000       0.700000000000000       0.300000000000000     
  0.888898804775605     
  0.300000000000000       0.700000000000000       0.300000000000000     
  0.777794627126595     
  0.400000000000000       0.700000000000000       0.300000000000000     
  0.666682486565417     
  0.500000000000000       0.700000000000000       0.300000000000000     
  0.555561923511667     
  0.600000000000000       0.700000000000000       0.300000000000000     
  0.444438037783842     
  0.700000000000000       0.700000000000000       0.300000000000000     
  0.333315934983202     
  0.800000000000000       0.700000000000000       0.300000000000000     
  0.222206499492541     
  0.900000000000000       0.700000000000000       0.300000000000000     
  0.111100065589290     
   1.00000000000000       0.700000000000000       0.300000000000000     
 -1.697680248536113E-011
  0.100000000000000       0.800000000000000       0.300000000000000     
   1.00000000000000     
  0.200000000000000       0.800000000000000       0.300000000000000     
  0.888899417840148     
  0.300000000000000       0.800000000000000       0.300000000000000     
  0.777795020153591     
  0.400000000000000       0.800000000000000       0.300000000000000     
  0.666683607300372     
  0.500000000000000       0.800000000000000       0.300000000000000     
  0.555561490352032     
  0.600000000000000       0.800000000000000       0.300000000000000     
  0.444437858510861     
  0.700000000000000       0.800000000000000       0.300000000000000     
  0.333315513483356     
  0.800000000000000       0.800000000000000       0.300000000000000     
  0.222205528610365     
  0.900000000000000       0.800000000000000       0.300000000000000     
  0.111100335990271     
   1.00000000000000       0.800000000000000       0.300000000000000     
 -1.697680248536113E-011
  0.100000000000000       0.900000000000000       0.300000000000000     
   1.00000000000000     
  0.200000000000000       0.900000000000000       0.300000000000000     
  0.888900050008557     
  0.300000000000000       0.900000000000000       0.300000000000000     
  0.777795157555776     
  0.400000000000000       0.900000000000000       0.300000000000000     
  0.666685063911436     
  0.500000000000000       0.900000000000000       0.300000000000000     
  0.555561329353150     
  0.600000000000000       0.900000000000000       0.300000000000000     
  0.444437604511809     
  0.700000000000000       0.900000000000000       0.300000000000000     
  0.333314639666758     
  0.800000000000000       0.900000000000000       0.300000000000000     
  0.222204831964879     
  0.900000000000000       0.900000000000000       0.300000000000000     
  0.111100420375601     
   1.00000000000000       0.900000000000000       0.300000000000000     
 -1.697680248536113E-011
  0.100000000000000        1.00000000000000       0.300000000000000     
  0.944450434199541     
  0.200000000000000        1.00000000000000       0.300000000000000     
  0.888900587585649     
  0.300000000000000        1.00000000000000       0.300000000000000     
  0.777795657263220     
  0.400000000000000        1.00000000000000       0.300000000000000     
  0.666686673697071     
  0.500000000000000        1.00000000000000       0.300000000000000     
  0.555561076007928     
  0.600000000000000        1.00000000000000       0.300000000000000     
  0.444437658529952     
  0.700000000000000        1.00000000000000       0.300000000000000     
  0.333313219142004     
  0.800000000000000        1.00000000000000       0.300000000000000     
  0.222204260781464     
  0.900000000000000        1.00000000000000       0.300000000000000     
  0.111100056974930     
   1.00000000000000        1.00000000000000       0.300000000000000     
  5.554993913597291E-002
  0.100000000000000       0.100000000000000       0.400000000000000     
  0.944449360193091     
  0.200000000000000       0.100000000000000       0.400000000000000     
  0.888898769593437     
  0.300000000000000       0.100000000000000       0.400000000000000     
  0.777796455066402     
  0.400000000000000       0.100000000000000       0.400000000000000     
  0.666684279213759     
  0.500000000000000       0.100000000000000       0.400000000000000     