 TITLE = "Example: Simple 3D Volume Data"
 VARIABLES = "X", "Y", "Z", "Temperature"
 ZONE I=10, J=10, K=10, DATAPACKING=POINT
  0.200000000000000       0.200000000000000       0.200000000000000     
  0.000000000000000E+000
  0.400000000000000       0.200000000000000       0.200000000000000     
  0.000000000000000E+000
  0.600000000000000       0.200000000000000       0.200000000000000     
  0.000000000000000E+000
  0.800000000000000       0.200000000000000       0.200000000000000     
  0.000000000000000E+000
   1.00000000000000       0.200000000000000       0.200000000000000     
  0.000000000000000E+000
  0.200000000000000       0.400000000000000       0.200000000000000     
  0.000000000000000E+000
  0.400000000000000       0.400000000000000       0.200000000000000     
  0.000000000000000E+000
  0.600000000000000       0.400000000000000       0.200000000000000     
  0.000000000000000E+000
  0.800000000000000       0.400000000000000       0.200000000000000     
  0.000000000000000E+000
   1.00000000000000       0.400000000000000       0.200000000000000     
  0.000000000000000E+000
  0.200000000000000       0.600000000000000       0.200000000000000     
  0.000000000000000E+000
  0.400000000000000       0.600000000000000       0.200000000000000     
  0.000000000000000E+000
  0.600000000000000       0.600000000000000       0.200000000000000     
  0.000000000000000E+000
  0.800000000000000       0.600000000000000       0.200000000000000     
  0.000000000000000E+000
   1.00000000000000       0.600000000000000       0.200000000000000     
  0.000000000000000E+000
  0.200000000000000       0.800000000000000       0.200000000000000     
  0.000000000000000E+000
  0.400000000000000       0.800000000000000       0.200000000000000     
  0.000000000000000E+000
  0.600000000000000       0.800000000000000       0.200000000000000     
  0.000000000000000E+000
  0.800000000000000       0.800000000000000       0.200000000000000     
  0.000000000000000E+000
   1.00000000000000       0.800000000000000       0.200000000000000     
  0.000000000000000E+000
  0.200000000000000        1.00000000000000       0.200000000000000     
  0.000000000000000E+000
  0.400000000000000        1.00000000000000       0.200000000000000     
  0.000000000000000E+000
  0.600000000000000        1.00000000000000       0.200000000000000     
  0.000000000000000E+000
  0.800000000000000        1.00000000000000       0.200000000000000     
  0.000000000000000E+000
   1.00000000000000        1.00000000000000       0.200000000000000     
  0.000000000000000E+000
  0.200000000000000       0.200000000000000       0.400000000000000     
  0.000000000000000E+000
  0.400000000000000       0.200000000000000       0.400000000000000     
  0.000000000000000E+000
  0.600000000000000       0.200000000000000       0.400000000000000     
  0.000000000000000E+000
  0.800000000000000       0.200000000000000       0.400000000000000     
  0.000000000000000E+000
   1.00000000000000       0.200000000000000       0.400000000000000     
  0.000000000000000E+000
  0.200000000000000       0.400000000000000       0.400000000000000     
  0.000000000000000E+000
  0.400000000000000       0.400000000000000       0.400000000000000     
  0.000000000000000E+000
  0.600000000000000       0.400000000000000       0.400000000000000     
  0.000000000000000E+000
  0.800000000000000       0.400000000000000       0.400000000000000     
  0.000000000000000E+000
   1.00000000000000       0.400000000000000       0.400000000000000     
  0.000000000000000E+000
  0.200000000000000       0.600000000000000       0.400000000000000     
  0.000000000000000E+000
  0.400000000000000       0.600000000000000       0.400000000000000     
  0.000000000000000E+000
  0.600000000000000       0.600000000000000       0.400000000000000     
  0.000000000000000E+000
  0.800000000000000       0.600000000000000       0.400000000000000     
  0.000000000000000E+000
   1.00000000000000       0.600000000000000       0.400000000000000     
  0.000000000000000E+000
  0.200000000000000       0.800000000000000       0.400000000000000     
  0.000000000000000E+000
  0.400000000000000       0.800000000000000       0.400000000000000     
  0.000000000000000E+000
  0.600000000000000       0.800000000000000       0.400000000000000     
  0.000000000000000E+000
  0.800000000000000       0.800000000000000       0.400000000000000     
  0.000000000000000E+000
   1.00000000000000       0.800000000000000       0.400000000000000     
  0.000000000000000E+000
  0.200000000000000        1.00000000000000       0.400000000000000     
  0.000000000000000E+000
  0.400000000000000        1.00000000000000       0.400000000000000     
  0.000000000000000E+000
  0.600000000000000        1.00000000000000       0.400000000000000     
  0.000000000000000E+000
  0.800000000000000        1.00000000000000       0.400000000000000     
  0.000000000000000E+000
   1.00000000000000        1.00000000000000       0.400000000000000     
  0.000000000000000E+000
  0.200000000000000       0.200000000000000       0.600000000000000     
  0.000000000000000E+000
  0.400000000000000       0.200000000000000       0.600000000000000     
  0.000000000000000E+000
  0.600000000000000       0.200000000000000       0.600000000000000     
  0.000000000000000E+000
  0.800000000000000       0.200000000000000       0.600000000000000     
  0.000000000000000E+000
   1.00000000000000       0.200000000000000       0.600000000000000     
  0.000000000000000E+000
  0.200000000000000       0.400000000000000       0.600000000000000     
  0.000000000000000E+000
  0.400000000000000       0.400000000000000       0.600000000000000     
  0.000000000000000E+000
  0.600000000000000       0.400000000000000       0.600000000000000     
  0.000000000000000E+000
  0.800000000000000       0.400000000000000       0.600000000000000     
  0.000000000000000E+000
   1.00000000000000       0.400000000000000       0.600000000000000     
  0.000000000000000E+000
  0.200000000000000       0.600000000000000       0.600000000000000     
  0.000000000000000E+000
  0.400000000000000       0.600000000000000       0.600000000000000     
  0.000000000000000E+000
  0.600000000000000       0.600000000000000       0.600000000000000     
  0.000000000000000E+000
  0.800000000000000       0.600000000000000       0.600000000000000     
  0.000000000000000E+000
   1.00000000000000       0.600000000000000       0.600000000000000     
  0.000000000000000E+000
  0.200000000000000       0.800000000000000       0.600000000000000     
  0.000000000000000E+000
  0.400000000000000       0.800000000000000       0.600000000000000     
  0.000000000000000E+000
  0.600000000000000       0.800000000000000       0.600000000000000     
  0.000000000000000E+000
  0.800000000000000       0.800000000000000       0.600000000000000     
  0.000000000000000E+000
   1.00000000000000       0.800000000000000       0.600000000000000     
  0.000000000000000E+000
  0.200000000000000        1.00000000000000       0.600000000000000     
  0.000000000000000E+000
  0.400000000000000        1.00000000000000       0.600000000000000     
  0.000000000000000E+000
  0.600000000000000        1.00000000000000       0.600000000000000     
  0.000000000000000E+000
  0.800000000000000        1.00000000000000       0.600000000000000     
  0.000000000000000E+000
   1.00000000000000        1.00000000000000       0.600000000000000     
  0.000000000000000E+000
  0.200000000000000       0.200000000000000       0.800000000000000     
  0.000000000000000E+000
  0.400000000000000       0.200000000000000       0.800000000000000     
  0.000000000000000E+000
  0.600000000000000       0.200000000000000       0.800000000000000     
  0.000000000000000E+000
  0.800000000000000       0.200000000000000       0.800000000000000     
  0.000000000000000E+000
   1.00000000000000       0.200000000000000       0.800000000000000     
  0.000000000000000E+000
  0.200000000000000       0.400000000000000       0.800000000000000     
  0.000000000000000E+000
  0.400000000000000       0.400000000000000       0.800000000000000     
  0.000000000000000E+000
  0.600000000000000       0.400000000000000       0.800000000000000     
  0.000000000000000E+000
  0.800000000000000       0.400000000000000       0.800000000000000     
  0.000000000000000E+000
   1.00000000000000       0.400000000000000       0.800000000000000     
  0.000000000000000E+000
  0.200000000000000       0.600000000000000       0.800000000000000     
  0.000000000000000E+000
  0.400000000000000       0.600000000000000       0.800000000000000     
  0.000000000000000E+000
  0.600000000000000       0.600000000000000       0.800000000000000     
  0.000000000000000E+000
  0.800000000000000       0.600000000000000       0.800000000000000     
  0.000000000000000E+000
   1.00000000000000       0.600000000000000       0.800000000000000     
  0.000000000000000E+000
  0.200000000000000       0.800000000000000       0.800000000000000     
  0.000000000000000E+000
  0.400000000000000       0.800000000000000       0.800000000000000     
  0.000000000000000E+000
  0.600000000000000       0.800000000000000       0.800000000000000     
  0.000000000000000E+000
  0.800000000000000       0.800000000000000       0.800000000000000     
  0.000000000000000E+000
   1.00000000000000       0.800000000000000       0.800000000000000     
  0.000000000000000E+000
  0.200000000000000        1.00000000000000       0.800000000000000     
  0.000000000000000E+000
  0.400000000000000        1.00000000000000       0.800000000000000     
  0.000000000000000E+000
  0.600000000000000        1.00000000000000       0.800000000000000     
  0.000000000000000E+000
  0.800000000000000        1.00000000000000       0.800000000000000     
  0.000000000000000E+000
   1.00000000000000        1.00000000000000       0.800000000000000     
  0.000000000000000E+000
  0.200000000000000       0.200000000000000        1.00000000000000     
  0.000000000000000E+000
  0.400000000000000       0.200000000000000        1.00000000000000     
  0.000000000000000E+000
  0.600000000000000       0.200000000000000        1.00000000000000     
  0.000000000000000E+000
  0.800000000000000       0.200000000000000        1.00000000000000     
  0.000000000000000E+000
   1.00000000000000       0.200000000000000        1.00000000000000     
  0.000000000000000E+000
  0.200000000000000       0.400000000000000        1.00000000000000     
  0.000000000000000E+000
  0.400000000000000       0.400000000000000        1.00000000000000     
  0.000000000000000E+000
  0.600000000000000       0.400000000000000        1.00000000000000     
  0.000000000000000E+000
  0.800000000000000       0.400000000000000        1.00000000000000     
  0.000000000000000E+000
   1.00000000000000       0.400000000000000        1.00000000000000     
  0.000000000000000E+000
  0.200000000000000       0.600000000000000        1.00000000000000     
  0.000000000000000E+000
  0.400000000000000       0.600000000000000        1.00000000000000     
  0.000000000000000E+000
  0.600000000000000       0.600000000000000        1.00000000000000     
  0.000000000000000E+000
  0.800000000000000       0.600000000000000        1.00000000000000     
  0.000000000000000E+000
   1.00000000000000       0.600000000000000        1.00000000000000     
  0.000000000000000E+000
  0.200000000000000       0.800000000000000        1.00000000000000     
  0.000000000000000E+000
  0.400000000000000       0.800000000000000        1.00000000000000     
  0.000000000000000E+000
  0.600000000000000       0.800000000000000        1.00000000000000     
  0.000000000000000E+000
  0.800000000000000       0.800000000000000        1.00000000000000     
  0.000000000000000E+000
   1.00000000000000       0.800000000000000        1.00000000000000     
  0.000000000000000E+000
  0.200000000000000        1.00000000000000        1.00000000000000     
  0.000000000000000E+000
  0.400000000000000        1.00000000000000        1.00000000000000     
  0.000000000000000E+000
  0.600000000000000        1.00000000000000        1.00000000000000     
  0.000000000000000E+000
  0.800000000000000        1.00000000000000        1.00000000000000     
  0.000000000000000E+000
   1.00000000000000        1.00000000000000        1.00000000000000     
  0.000000000000000E+000
