 TITLE = "Example: Simple 3D Volume Data"
 VARIABLES = "X", "Y", "Z", "Temperature"
 ZONE I=10, J=10, K=10, DATAPACKING=POINT
  0.333333333333333       0.333333333333333       0.333333333333333     
  0.000000000000000E+000
  0.666666666666667       0.333333333333333       0.333333333333333     
  0.000000000000000E+000
   1.00000000000000       0.333333333333333       0.333333333333333     
  0.000000000000000E+000
  0.333333333333333       0.666666666666667       0.333333333333333     
  0.000000000000000E+000
  0.666666666666667       0.666666666666667       0.333333333333333     
  0.000000000000000E+000
   1.00000000000000       0.666666666666667       0.333333333333333     
  0.000000000000000E+000
  0.333333333333333        1.00000000000000       0.333333333333333     
  0.000000000000000E+000
  0.666666666666667        1.00000000000000       0.333333333333333     
  0.000000000000000E+000
   1.00000000000000        1.00000000000000       0.333333333333333     
  0.000000000000000E+000
  0.333333333333333       0.333333333333333       0.666666666666667     
  0.000000000000000E+000
  0.666666666666667       0.333333333333333       0.666666666666667     
  0.000000000000000E+000
   1.00000000000000       0.333333333333333       0.666666666666667     
  0.000000000000000E+000
  0.333333333333333       0.666666666666667       0.666666666666667     
  0.000000000000000E+000
  0.666666666666667       0.666666666666667       0.666666666666667     
  0.000000000000000E+000
   1.00000000000000       0.666666666666667       0.666666666666667     
  0.000000000000000E+000
  0.333333333333333        1.00000000000000       0.666666666666667     
  0.000000000000000E+000
  0.666666666666667        1.00000000000000       0.666666666666667     
  0.000000000000000E+000
   1.00000000000000        1.00000000000000       0.666666666666667     
  0.000000000000000E+000
  0.333333333333333       0.333333333333333        1.00000000000000     
  0.000000000000000E+000
  0.666666666666667       0.333333333333333        1.00000000000000     
  0.000000000000000E+000
   1.00000000000000       0.333333333333333        1.00000000000000     
  0.000000000000000E+000
  0.333333333333333       0.666666666666667        1.00000000000000     
  0.000000000000000E+000
  0.666666666666667       0.666666666666667        1.00000000000000     
  0.000000000000000E+000
   1.00000000000000       0.666666666666667        1.00000000000000     
  0.000000000000000E+000
  0.333333333333333        1.00000000000000        1.00000000000000     
  0.000000000000000E+000
  0.666666666666667        1.00000000000000        1.00000000000000     
  0.000000000000000E+000
   1.00000000000000        1.00000000000000        1.00000000000000     
  0.000000000000000E+000
