 TITLE = "Example: Simple 3D Volume Data"
 VARIABLES = "X", "Y", "Z", "Temperature"
 ZONE I=10, J=10, K=10, DATAPACKING=POINT
  0.200000000000000       0.200000000000000       0.200000000000000     
  0.833333333333333     
  0.400000000000000       0.200000000000000       0.200000000000000     
  0.750000000000000     
  0.600000000000000       0.200000000000000       0.200000000000000     
  0.500000000000000     
  0.800000000000000       0.200000000000000       0.200000000000000     
  0.250000000000000     
   1.00000000000000       0.200000000000000       0.200000000000000     
  0.166666666666667     
  0.200000000000000       0.400000000000000       0.200000000000000     
  0.875000000000000     
  0.400000000000000       0.400000000000000       0.200000000000000     
  0.750000000000000     
  0.600000000000000       0.400000000000000       0.200000000000000     
  0.500000000000000     
  0.800000000000000       0.400000000000000       0.200000000000000     
  0.250000000000000     
   1.00000000000000       0.400000000000000       0.200000000000000     
  0.125000000000000     
  0.200000000000000       0.600000000000000       0.200000000000000     
  0.875000000000000     
  0.400000000000000       0.600000000000000       0.200000000000000     
  0.750000000000000     
  0.600000000000000       0.600000000000000       0.200000000000000     
  0.500000000000000     
  0.800000000000000       0.600000000000000       0.200000000000000     
  0.250000000000000     
   1.00000000000000       0.600000000000000       0.200000000000000     
  0.125000000000000     
  0.200000000000000       0.800000000000000       0.200000000000000     
  0.875000000000000     
  0.400000000000000       0.800000000000000       0.200000000000000     
  0.750000000000000     
  0.600000000000000       0.800000000000000       0.200000000000000     
  0.500000000000000     
  0.800000000000000       0.800000000000000       0.200000000000000     
  0.250000000000000     
   1.00000000000000       0.800000000000000       0.200000000000000     
  0.125000000000000     
  0.200000000000000        1.00000000000000       0.200000000000000     
  0.833333333333334     
  0.400000000000000        1.00000000000000       0.200000000000000     
  0.750000000000000     
  0.600000000000000        1.00000000000000       0.200000000000000     
  0.500000000000000     
  0.800000000000000        1.00000000000000       0.200000000000000     
  0.250000000000000     
   1.00000000000000        1.00000000000000       0.200000000000000     
  0.166666666666667     
  0.200000000000000       0.200000000000000       0.400000000000000     
  0.875000000000000     
  0.400000000000000       0.200000000000000       0.400000000000000     
  0.750000000000000     
  0.600000000000000       0.200000000000000       0.400000000000000     
  0.500000000000000     
  0.800000000000000       0.200000000000000       0.400000000000000     
  0.250000000000000     
   1.00000000000000       0.200000000000000       0.400000000000000     
  0.125000000000000     
  0.200000000000000       0.400000000000000       0.400000000000000     
   1.00000000000000     
  0.400000000000000       0.400000000000000       0.400000000000000     
  0.750000000000000     
  0.600000000000000       0.400000000000000       0.400000000000000     
  0.500000000000000     
  0.800000000000000       0.400000000000000       0.400000000000000     
  0.250000000000000     
   1.00000000000000       0.400000000000000       0.400000000000000     
  0.000000000000000E+000
  0.200000000000000       0.600000000000000       0.400000000000000     
   1.00000000000000     
  0.400000000000000       0.600000000000000       0.400000000000000     
  0.750000000000000     
  0.600000000000000       0.600000000000000       0.400000000000000     
  0.500000000000000     
  0.800000000000000       0.600000000000000       0.400000000000000     
  0.250000000000000     
   1.00000000000000       0.600000000000000       0.400000000000000     
  0.000000000000000E+000
  0.200000000000000       0.800000000000000       0.400000000000000     
   1.00000000000000     
  0.400000000000000       0.800000000000000       0.400000000000000     
  0.750000000000000     
  0.600000000000000       0.800000000000000       0.400000000000000     
  0.500000000000000     
  0.800000000000000       0.800000000000000       0.400000000000000     
  0.250000000000000     
   1.00000000000000       0.800000000000000       0.400000000000000     
  0.000000000000000E+000
  0.200000000000000        1.00000000000000       0.400000000000000     
  0.875000000000000     
  0.400000000000000        1.00000000000000       0.400000000000000     
  0.750000000000000     
  0.600000000000000        1.00000000000000       0.400000000000000     
  0.500000000000000     
  0.800000000000000        1.00000000000000       0.400000000000000     
  0.250000000000000     
   1.00000000000000        1.00000000000000       0.400000000000000     
  0.125000000000000     
  0.200000000000000       0.200000000000000       0.600000000000000     
  0.875000000000000     
  0.400000000000000       0.200000000000000       0.600000000000000     
  0.750000000000000     
  0.600000000000000       0.200000000000000       0.600000000000000     
  0.500000000000000     
  0.800000000000000       0.200000000000000       0.600000000000000     
  0.250000000000000     
   1.00000000000000       0.200000000000000       0.600000000000000     
  0.125000000000000     
  0.200000000000000       0.400000000000000       0.600000000000000     
   1.00000000000000     
  0.400000000000000       0.400000000000000       0.600000000000000     
  0.750000000000000     
  0.600000000000000       0.400000000000000       0.600000000000000     
  0.500000000000000     
  0.800000000000000       0.400000000000000       0.600000000000000     
  0.250000000000000     
   1.00000000000000       0.400000000000000       0.600000000000000     
  0.000000000000000E+000
  0.200000000000000       0.600000000000000       0.600000000000000     
   1.00000000000000     
  0.400000000000000       0.600000000000000       0.600000000000000     
  0.750000000000000     
  0.600000000000000       0.600000000000000       0.600000000000000     
  0.500000000000000     
  0.800000000000000       0.600000000000000       0.600000000000000     
  0.250000000000000     
   1.00000000000000       0.600000000000000       0.600000000000000     
  0.000000000000000E+000
  0.200000000000000       0.800000000000000       0.600000000000000     
   1.00000000000000     
  0.400000000000000       0.800000000000000       0.600000000000000     
  0.750000000000000     
  0.600000000000000       0.800000000000000       0.600000000000000     
  0.500000000000000     
  0.800000000000000       0.800000000000000       0.600000000000000     
  0.250000000000000     
   1.00000000000000       0.800000000000000       0.600000000000000     
  0.000000000000000E+000
  0.200000000000000        1.00000000000000       0.600000000000000     
  0.875000000000000     
  0.400000000000000        1.00000000000000       0.600000000000000     
  0.750000000000000     
  0.600000000000000        1.00000000000000       0.600000000000000     
  0.500000000000000     
  0.800000000000000        1.00000000000000       0.600000000000000     
  0.250000000000000     
   1.00000000000000        1.00000000000000       0.600000000000000     
  0.125000000000000     
  0.200000000000000       0.200000000000000       0.800000000000000     
  0.875000000000000     
  0.400000000000000       0.200000000000000       0.800000000000000     
  0.750000000000000     
  0.600000000000000       0.200000000000000       0.800000000000000     
  0.500000000000000     
  0.800000000000000       0.200000000000000       0.800000000000000     
  0.250000000000000     
   1.00000000000000       0.200000000000000       0.800000000000000     
  0.125000000000000     
  0.200000000000000       0.400000000000000       0.800000000000000     
   1.00000000000000     
  0.400000000000000       0.400000000000000       0.800000000000000     
  0.750000000000000     
  0.600000000000000       0.400000000000000       0.800000000000000     
  0.500000000000000     
  0.800000000000000       0.400000000000000       0.800000000000000     
  0.250000000000000     
   1.00000000000000       0.400000000000000       0.800000000000000     
  0.000000000000000E+000
  0.200000000000000       0.600000000000000       0.800000000000000     
   1.00000000000000     
  0.400000000000000       0.600000000000000       0.800000000000000     
  0.750000000000000     
  0.600000000000000       0.600000000000000       0.800000000000000     
  0.500000000000000     
  0.800000000000000       0.600000000000000       0.800000000000000     
  0.250000000000000     
   1.00000000000000       0.600000000000000       0.800000000000000     
  0.000000000000000E+000
  0.200000000000000       0.800000000000000       0.800000000000000     
   1.00000000000000     
  0.400000000000000       0.800000000000000       0.800000000000000     
  0.750000000000000     
  0.600000000000000       0.800000000000000       0.800000000000000     
  0.500000000000000     
  0.800000000000000       0.800000000000000       0.800000000000000     
  0.250000000000000     
   1.00000000000000       0.800000000000000       0.800000000000000     
  0.000000000000000E+000
  0.200000000000000        1.00000000000000       0.800000000000000     
  0.875000000000000     
  0.400000000000000        1.00000000000000       0.800000000000000     
  0.750000000000000     
  0.600000000000000        1.00000000000000       0.800000000000000     
  0.500000000000000     
  0.800000000000000        1.00000000000000       0.800000000000000     
  0.250000000000000     
   1.00000000000000        1.00000000000000       0.800000000000000     
  0.125000000000000     
  0.200000000000000       0.200000000000000        1.00000000000000     
  0.833333333333333     
  0.400000000000000       0.200000000000000        1.00000000000000     
  0.750000000000000     
  0.600000000000000       0.200000000000000        1.00000000000000     
  0.500000000000000     
  0.800000000000000       0.200000000000000        1.00000000000000     
  0.250000000000000     
   1.00000000000000       0.200000000000000        1.00000000000000     
  0.166666666666667     
  0.200000000000000       0.400000000000000        1.00000000000000     
  0.875000000000000     
  0.400000000000000       0.400000000000000        1.00000000000000     
  0.750000000000000     
  0.600000000000000       0.400000000000000        1.00000000000000     
  0.500000000000000     
  0.800000000000000       0.400000000000000        1.00000000000000     
  0.250000000000000     
   1.00000000000000       0.400000000000000        1.00000000000000     
  0.125000000000000     
  0.200000000000000       0.600000000000000        1.00000000000000     
  0.875000000000000     
  0.400000000000000       0.600000000000000        1.00000000000000     
  0.750000000000000     
  0.600000000000000       0.600000000000000        1.00000000000000     
  0.500000000000000     
  0.800000000000000       0.600000000000000        1.00000000000000     
  0.250000000000000     
   1.00000000000000       0.600000000000000        1.00000000000000     
  0.125000000000000     
  0.200000000000000       0.800000000000000        1.00000000000000     
  0.875000000000000     
  0.400000000000000       0.800000000000000        1.00000000000000     
  0.750000000000000     
  0.600000000000000       0.800000000000000        1.00000000000000     
  0.500000000000000     
  0.800000000000000       0.800000000000000        1.00000000000000     
  0.250000000000000     
   1.00000000000000       0.800000000000000        1.00000000000000     
  0.125000000000000     
  0.200000000000000        1.00000000000000        1.00000000000000     
  0.833333333333334     
  0.400000000000000        1.00000000000000        1.00000000000000     
  0.750000000000000     
  0.600000000000000        1.00000000000000        1.00000000000000     
  0.500000000000000     
  0.800000000000000        1.00000000000000        1.00000000000000     
  0.250000000000000     
   1.00000000000000        1.00000000000000        1.00000000000000     
  0.166666666666667     
