 TITLE = "Example: Simple 3D Volume Data"
 VARIABLES = "X", "Y", "Z", "Temperature"
 ZONE I=5, J=5, K=5, DATAPACKING=POINT
  0.200000000000000       0.200000000000000       0.200000000000000     
  0.349378747668358     
  0.400000000000000       0.200000000000000       0.200000000000000     
  0.264358893540816     
  0.600000000000000       0.200000000000000       0.200000000000000     
  6.024069311464351E-002
  0.800000000000000       0.200000000000000       0.200000000000000     
  8.030017779591700E-002
   1.00000000000000       0.200000000000000       0.200000000000000     
  7.519241189878875E-002
  0.200000000000000       0.400000000000000       0.200000000000000     
  0.312299612856871     
  0.400000000000000       0.400000000000000       0.200000000000000     
  4.894665022782069E-002
  0.600000000000000       0.400000000000000       0.200000000000000     
                     NaN
  0.800000000000000       0.400000000000000       0.200000000000000     
  6.667798239347071E-002
   1.00000000000000       0.400000000000000       0.200000000000000     
  4.015008889795851E-002
  0.200000000000000       0.600000000000000       0.200000000000000     
  0.293267306966608     
  0.400000000000000       0.600000000000000       0.200000000000000     
  7.226979682000044E-002
  0.600000000000000       0.600000000000000       0.200000000000000     
  0.109050759000770     
  0.800000000000000       0.600000000000000       0.200000000000000     
  6.239947159664874E-002
   1.00000000000000       0.600000000000000       0.200000000000000     
                     NaN
  0.200000000000000       0.800000000000000       0.200000000000000     
  0.312299612856871     
  0.400000000000000       0.800000000000000       0.200000000000000     
  4.894665022782069E-002
  0.600000000000000       0.800000000000000       0.200000000000000     
  0.100188383836098     
  0.800000000000000       0.800000000000000       0.200000000000000     
  6.667798239347070E-002
   1.00000000000000       0.800000000000000       0.200000000000000     
  4.015008889795850E-002
  0.200000000000000        1.00000000000000       0.200000000000000     
  0.349378747668364     
  0.400000000000000        1.00000000000000       0.200000000000000     
  0.264358893540816     
  0.600000000000000        1.00000000000000       0.200000000000000     
  6.024069311464354E-002
  0.800000000000000        1.00000000000000       0.200000000000000     
  8.030017779591699E-002
   1.00000000000000        1.00000000000000       0.200000000000000     
  7.519241189878878E-002
  0.200000000000000       0.200000000000000       0.400000000000000     
  0.312299612856871     
  0.400000000000000       0.200000000000000       0.400000000000000     
  4.894665022782069E-002
  0.600000000000000       0.200000000000000       0.400000000000000     
  0.100188383836099     
  0.800000000000000       0.200000000000000       0.400000000000000     
  6.667798239347071E-002
   1.00000000000000       0.200000000000000       0.400000000000000     
  4.015008889795851E-002
  0.200000000000000       0.400000000000000       0.400000000000000     
  0.421348314606742     
  0.400000000000000       0.400000000000000       0.400000000000000     
  1.997224452308326E-002
  0.600000000000000       0.400000000000000       0.400000000000000     
  7.670247084760443E-002
  0.800000000000000       0.400000000000000       0.400000000000000     
  6.366643875993541E-002
   1.00000000000000       0.400000000000000       0.400000000000000     
  0.000000000000000E+000
  0.200000000000000       0.600000000000000       0.400000000000000     
  0.421348314606742     
  0.400000000000000       0.600000000000000       0.400000000000000     
 -1.577456380030933E-002
  0.600000000000000       0.600000000000000       0.400000000000000     
  9.109432987191177E-002
  0.800000000000000       0.600000000000000       0.400000000000000     
  5.969258312020284E-002
   1.00000000000000       0.600000000000000       0.400000000000000     
  0.000000000000000E+000
  0.200000000000000       0.800000000000000       0.400000000000000     
  0.421348314606742     
  0.400000000000000       0.800000000000000       0.400000000000000     
  1.997224452308331E-002
  0.600000000000000       0.800000000000000       0.400000000000000     
  7.670247084760444E-002
  0.800000000000000       0.800000000000000       0.400000000000000     
  6.366643875993540E-002
   1.00000000000000       0.800000000000000       0.400000000000000     
                     NaN
  0.200000000000000        1.00000000000000       0.400000000000000     
  0.312299612856871     
  0.400000000000000        1.00000000000000       0.400000000000000     
  4.894665022782069E-002
  0.600000000000000        1.00000000000000       0.400000000000000     
  0.100188383836098     
  0.800000000000000        1.00000000000000       0.400000000000000     
  6.667798239347070E-002
   1.00000000000000        1.00000000000000       0.400000000000000     
  4.015008889795850E-002
  0.200000000000000       0.200000000000000       0.600000000000000     
  0.293267306966608     
  0.400000000000000       0.200000000000000       0.600000000000000     
  7.226979682000044E-002
  0.600000000000000       0.200000000000000       0.600000000000000     
  0.109050759000770     
  0.800000000000000       0.200000000000000       0.600000000000000     
  6.239947159664877E-002
   1.00000000000000       0.200000000000000       0.600000000000000     
  3.147326922518155E-002
  0.200000000000000       0.400000000000000       0.600000000000000     
  0.421348314606742     
  0.400000000000000       0.400000000000000       0.600000000000000     
                     NaN
  0.600000000000000       0.400000000000000       0.600000000000000     
  9.109432987191175E-002
  0.800000000000000       0.400000000000000       0.600000000000000     
  5.969258312020286E-002
   1.00000000000000       0.400000000000000       0.600000000000000     
  0.000000000000000E+000
  0.200000000000000       0.600000000000000       0.600000000000000     
  0.421348314606742     
  0.400000000000000       0.600000000000000       0.600000000000000     
                     NaN
  0.600000000000000       0.600000000000000       0.600000000000000     
  8.289712958789067E-002
  0.800000000000000       0.600000000000000       0.600000000000000     
  7.037830277556494E-002
   1.00000000000000       0.600000000000000       0.600000000000000     
  0.000000000000000E+000
  0.200000000000000       0.800000000000000       0.600000000000000     
  0.421348314606742     
  0.400000000000000       0.800000000000000       0.600000000000000     
 -1.577456380030934E-002
  0.600000000000000       0.800000000000000       0.600000000000000     
  9.109432987191177E-002
  0.800000000000000       0.800000000000000       0.600000000000000     
  5.969258312020285E-002
   1.00000000000000       0.800000000000000       0.600000000000000     
  0.000000000000000E+000
  0.200000000000000        1.00000000000000       0.600000000000000     
  0.293267306966608     
  0.400000000000000        1.00000000000000       0.600000000000000     
  7.226979682000047E-002
  0.600000000000000        1.00000000000000       0.600000000000000     
  0.109050759000770     
  0.800000000000000        1.00000000000000       0.600000000000000     
  6.239947159664876E-002
   1.00000000000000        1.00000000000000       0.600000000000000     
  3.147326922518155E-002
  0.200000000000000       0.200000000000000       0.800000000000000     
  0.312299612856871     
  0.400000000000000       0.200000000000000       0.800000000000000     
  4.894665022782069E-002
  0.600000000000000       0.200000000000000       0.800000000000000     
  0.100188383836099     
  0.800000000000000       0.200000000000000       0.800000000000000     
  6.667798239347071E-002
   1.00000000000000       0.200000000000000       0.800000000000000     
  4.015008889795851E-002
  0.200000000000000       0.400000000000000       0.800000000000000     
  0.421348314606742     
  0.400000000000000       0.400000000000000       0.800000000000000     
  1.997224452308330E-002
  0.600000000000000       0.400000000000000       0.800000000000000     
  7.670247084760445E-002
  0.800000000000000       0.400000000000000       0.800000000000000     
  6.366643875993541E-002
   1.00000000000000       0.400000000000000       0.800000000000000     
  0.000000000000000E+000
  0.200000000000000       0.600000000000000       0.800000000000000     
  0.421348314606742     
  0.400000000000000       0.600000000000000       0.800000000000000     
 -1.577456380030935E-002
  0.600000000000000       0.600000000000000       0.800000000000000     
  9.109432987191175E-002
  0.800000000000000       0.600000000000000       0.800000000000000     
  5.969258312020286E-002
   1.00000000000000       0.600000000000000       0.800000000000000     
  0.000000000000000E+000
  0.200000000000000       0.800000000000000       0.800000000000000     
  0.421348314606742     
  0.400000000000000       0.800000000000000       0.800000000000000     
  1.997224452308337E-002
  0.600000000000000       0.800000000000000       0.800000000000000     
  7.670247084760447E-002
  0.800000000000000       0.800000000000000       0.800000000000000     
  6.366643875993543E-002
   1.00000000000000       0.800000000000000       0.800000000000000     
  7.495000000000000E-003
  0.200000000000000        1.00000000000000       0.800000000000000     
  0.312299612856871     
  0.400000000000000        1.00000000000000       0.800000000000000     
  0.248946650227821     
  0.600000000000000        1.00000000000000       0.800000000000000     
  0.100188383836099     
  0.800000000000000        1.00000000000000       0.800000000000000     
  0.266677982393471     
   1.00000000000000        1.00000000000000       0.800000000000000     
  0.240150088897959     
  0.200000000000000       0.200000000000000        1.00000000000000     
  0.549378747668365     
  0.400000000000000       0.200000000000000        1.00000000000000     
  0.264358893540816     
  0.600000000000000       0.200000000000000        1.00000000000000     
  0.260240693114644     
  0.800000000000000       0.200000000000000        1.00000000000000     
  8.030017779591701E-002
   1.00000000000000       0.200000000000000        1.00000000000000     
  0.275192411898789     
  0.200000000000000       0.400000000000000        1.00000000000000     
  0.512299612856871     
  0.400000000000000       0.400000000000000        1.00000000000000     
  0.248946650227821     
  0.600000000000000       0.400000000000000        1.00000000000000     
  0.100188383836099     
  0.800000000000000       0.400000000000000        1.00000000000000     
  0.266677982393471     
   1.00000000000000       0.400000000000000        1.00000000000000     
  4.015008889795851E-002
  0.200000000000000       0.600000000000000        1.00000000000000     
  0.301267306966608     
  0.400000000000000       0.600000000000000        1.00000000000000     
  8.026979682000045E-002
  0.600000000000000       0.600000000000000        1.00000000000000     
  0.117050759000770     
  0.800000000000000       0.600000000000000        1.00000000000000     
  6.239947159664878E-002
   1.00000000000000       0.600000000000000        1.00000000000000     
   1.23147326922518     
  0.200000000000000       0.800000000000000        1.00000000000000     
   1.51229961285687     
  0.400000000000000       0.800000000000000        1.00000000000000     
  0.248946650227821     
  0.600000000000000       0.800000000000000        1.00000000000000     
  0.300188383836099     
  0.800000000000000       0.800000000000000        1.00000000000000     
  6.667798239347072E-002
   1.00000000000000       0.800000000000000        1.00000000000000     
  4.015008889795849E-002
  0.200000000000000        1.00000000000000        1.00000000000000     
  0.349378747668471     
  0.400000000000000        1.00000000000000        1.00000000000000     
  0.264358893540816     
  0.600000000000000        1.00000000000000        1.00000000000000     
   1.26024069311464     
  0.800000000000000        1.00000000000000        1.00000000000000     
  8.030017779591699E-002
   1.00000000000000        1.00000000000000        1.00000000000000     
  7.519241189878904E-002
